
FAST Summary File

Predictions were generated on 11-Jun-2018 at 20:39:46 using OpenFAST, compiled as a 64-bit application using single precision at commit v0.1.0-716-gcb59bdca-dirty
  compiled with
    NWTC Subroutine Library
    ElastoDyn
    BeamDyn [not called]
    InflowWind
    AeroDyn14 [not called]
    AeroDyn
    ServoDyn
    HydroDyn [not called]
    SubDyn [not called]
    ExtPtfm_MCKF [not called]
    MAP [not called]
    FEAMooring [not called]
    MoorDyn [not called]
    OrcaFlexInterface [not called]
    IceFloe [not called]
    IceDyn [not called]


Modeling a land-based turbine
Description from the FAST input file: 
  FAST Certification Test #18: NREL 5.0 MW Baseline Wind Turbine (Onshore)

Interpolation order for input/output time histories: 2 (quadratic)
Number of correction iterations:  0


   Requested Time Steps  
  -------------------------------------------------
  Component          Time Step (s)    Subcycles (-)
  -----------------  ---------------  -------------
  FAST (glue code)    2.500E-02
  InflowWind          2.500E-02              1
  ElastoDyn           2.500E-02              1
  AeroDyn             2.500E-02              1
  ServoDyn            2.500E-02              1
  FAST output files   2.500E-02              1


   Requested Channels in FAST Output File(s)  
  --------------------------------------------
  Number  Name        Units       Generated by
  ------  ----------  ----------  ------------
       1  Time        (s)         OpenFAST
       2  Wind1VelX   (m/s)       InflowWind
       3  Wind1VelY   (m/s)       InflowWind
       4  Wind1VelZ   (m/s)       InflowWind
       5  BldPitch1   (deg)       ElastoDyn
       6  Azimuth     (deg)       ElastoDyn
       7  RotSpeed    (rpm)       ElastoDyn
       8  GenSpeed    (rpm)       ElastoDyn
       9  RootFxb1    (kN)        ElastoDyn
      10  RootFyb1    (kN)        ElastoDyn
      11  RootFzb1    (kN)        ElastoDyn
      12  RootMxb1    (kN-m)      ElastoDyn
      13  RootMyb1    (kN-m)      ElastoDyn
      14  RootMzb1    (kN-m)      ElastoDyn
      15  RotTorq     (kN-m)      ElastoDyn
      16  LSSGagMya   (kN-m)      ElastoDyn
      17  LSSGagMza   (kN-m)      ElastoDyn
      18  YawBrFxn    (kN)        ElastoDyn
      19  YawBrFyn    (kN)        ElastoDyn
      20  YawBrFzn    (kN)        ElastoDyn
      21  YawBrMxn    (kN-m)      ElastoDyn
      22  YawBrMyn    (kN-m)      ElastoDyn
      23  YawBrMzn    (kN-m)      ElastoDyn
      24  TwrBsFxt    (kN)        ElastoDyn
      25  TwrBsFyt    (kN)        ElastoDyn
      26  TwrBsFzt    (kN)        ElastoDyn
      27  TwrBsMxt    (kN-m)      ElastoDyn
      28  TwrBsMyt    (kN-m)      ElastoDyn
      29  TwrBsMzt    (kN-m)      ElastoDyn
      30  GenPwr      (kW)        ServoDyn
      31  GenTq       (kN-m)      ServoDyn
